/*--------------------------------*- C++ -*----------------------------------*\
| =========                 |                                                 |
| \\      /  F ield         | OpenFOAM: The Open Source CFD Toolbox           |
|  \\    /   O peration     | Version:  2.3.1                                 |
|   \\  /    A nd           | Web:      www.OpenFOAM.org                      |
|    \\/     M anipulation  |                                                 |
\*---------------------------------------------------------------------------*/
FoamFile
{
    version     2.0;
    format      ascii;
    class       volVectorField;
    location    "-180";
    object      U;
}
// * * * * * * * * * * * * * * * * * * * * * * * * * * * * * * * * * * * * * //

dimensions      [0 1 -1 0 0 0 0];

internalField   nonuniform List<vector> 
27544
(
(-1.62995 1.6432 0)
(-1.71592 1.59563 0)
(-1.79514 1.53972 0)
(-1.84234 1.46607 0)
(-1.89166 1.40928 0)
(-1.95134 1.34059 0)
(-2.00618 1.26643 0)
(-2.05786 1.18801 0)
(-2.10921 1.10789 0)
(-2.16204 1.02732 0)
(-2.21726 0.94662 0)
(-2.27522 0.865617 0)
(-2.33595 0.783859 0)
(-2.39919 0.700748 0)
(-2.46424 0.615579 0)
(-2.5297 0.527525 0)
(-2.59266 0.435559 0)
(-2.64744 0.33841 0)
(-2.70065 0.195337 0)
(-2.7314 0.00631866 0)
(-2.72721 -0.185296 0)
(-2.68818 -0.372992 0)
(-2.63039 -0.512589 0)
(-2.57362 -0.604687 0)
(-2.50664 -0.689875 0)
(-2.43637 -0.770394 0)
(-2.36618 -0.847738 0)
(-2.29767 -0.922921 0)
(-2.23156 -0.996691 0)
(-2.16815 -1.06964 0)
(-2.10747 -1.14222 0)
(-2.04923 -1.21468 0)
(-1.99276 -1.28688 0)
(-1.93692 -1.35809 0)
(-1.8807 -1.42717 0)
(-1.82827 -1.49754 0)
(-1.78811 -1.56105 0)
(-1.72699 -1.60976 0)
(-1.6329 -1.64756 0)
(-1.57052 1.73792 0)
(-1.69418 1.73492 0)
(-1.80723 1.71183 0)
(-1.87908 1.663 0)
(-1.93811 1.59929 0)
(-2.02064 1.54251 0)
(-2.0943 1.46909 0)
(-2.16337 1.38206 0)
(-2.2373 1.29355 0)
(-2.32095 1.20738 0)
(-2.41672 1.12376 0)
(-2.52545 1.04138 0)
(-2.64699 0.958336 0)
(-2.78018 0.872493 0)
(-2.92272 0.781617 0)
(-3.07041 0.683271 0)
(-3.21541 0.574442 0)
(-3.34186 0.450709 0)
(-3.44851 0.250862 0)
(-3.50423 -0.028637 0)
(-3.49678 -0.314408 0)
(-3.42684 -0.591104 0)
(-3.31575 -0.781204 0)
(-3.1891 -0.887685 0)
(-3.04182 -0.973918 0)
(-2.89083 -1.04875 0)
(-2.74408 -1.11681 0)
(-2.60571 -1.18093 0)
(-2.47795 -1.24332 0)
(-2.36197 -1.30587 0)
(-2.25807 -1.37022 0)
(-2.16567 -1.43747 0)
(-2.08308 -1.5075 0)
(-2.00676 -1.57743 0)
(-1.93023 -1.63846 0)
(-1.85684 -1.69852 0)
(-1.79662 -1.73859 0)
(-1.70969 -1.75972 0)
(-1.5746 -1.74527 0)
(-1.50083 1.82641 0)
(-1.64982 1.86277 0)
(-1.78731 1.87173 0)
(-1.88543 1.84716 0)
(-1.96941 1.8051 0)
(-2.07473 1.77214 0)
(-2.1628 1.69841 0)
(-2.24576 1.59214 0)
(-2.34334 1.49218 0)
(-2.45971 1.39997 0)
(-2.59676 1.31334 0)
(-2.75466 1.22888 0)
(-2.93193 1.14278 0)
(-3.1255 1.0513 0)
(-3.33047 0.951036 0)
(-3.5399 0.839065 0)
(-3.74401 0.712724 0)
(-3.92813 0.568432 0)
(-4.06974 0.304406 0)
(-4.12424 -0.0929595 0)
(-4.10537 -0.500369 0)
(-4.01467 -0.89644 0)
(-3.86 -1.13137 0)
(-3.67896 -1.22562 0)
(-3.47956 -1.30045 0)
(-3.2742 -1.36392 0)
(-3.0715 -1.41979 0)
(-2.8778 -1.4709 0)
(-2.69775 -1.52007 0)
(-2.53448 -1.57029 0)
(-2.38972 -1.62452 0)
(-2.2638 -1.68539 0)
(-2.15559 -1.75441 0)
(-2.06193 -1.82983 0)
(-1.96359 -1.87409 0)
(-1.84814 -1.87402 0)
(-1.76241 -1.89208 0)
(-1.65957 -1.88605 0)
(-1.50351 -1.83347 0)
(-1.42378 1.90929 0)
(-1.58952 1.98181 0)
(-1.74358 2.02105 0)
(-1.86034 2.01958 0)
(-1.95753 1.99346 0)
(-2.06114 1.96433 0)
(-2.22384 1.95259 0)
(-2.35234 1.84633 0)
(-2.46343 1.71954 0)
(-2.59984 1.60764 0)
(-2.76329 1.50551 0)
(-2.95326 1.40745 0)
(-3.16655 1.30762 0)
(-3.39707 1.20066 0)
(-3.63567 1.08236 0)
(-3.87035 0.950352 0)
(-4.08676 0.804761 0)
(-4.25658 0.619917 0)
(-4.35173 0.268521 0)
(-4.38166 -0.17357 0)
(-4.34696 -0.624163 0)
(-4.24964 -1.06411 0)
(-4.10547 -1.39765 0)
(-3.93921 -1.50841 0)
(-3.74406 -1.57134 0)
(-3.52982 -1.62944 0)
(-3.30865 -1.68245 0)
(-3.09103 -1.73191 0)
(-2.88529 -1.7807 0)
(-2.6974 -1.8326 0)
(-2.53097 -1.89178 0)
(-2.38745 -1.96244 0)
(-2.2664 -2.04835 0)
(-2.12021 -2.10422 0)
(-1.92924 -2.04865 0)
(-1.81063 -2.0326 0)
(-1.71129 -2.02926 0)
(-1.59275 -1.99926 0)
(-1.4246 -1.91449 0)
(-1.3412 1.98746 0)
(-1.5182 2.09474 0)
(-1.68375 2.16331 0)
(-1.81428 2.18459 0)
(-1.91961 2.17102 0)
(-2.01405 2.13804 0)
(-2.19253 2.14945 0)
(-2.44235 2.142 0)
(-2.63447 2.04165 0)
(-2.82972 1.92653 0)
(-3.02549 1.79557 0)
(-3.22442 1.65566 0)
(-3.44895 1.52528 0)
(-3.6941 1.39305 0)
(-3.92693 1.23074 0)
(-4.12951 1.03369 0)
(-4.29332 0.803847 0)
(-4.39676 0.494246 0)
(-4.44516 0.132503 0)
(-4.44946 -0.250811 0)
(-4.41315 -0.638255 0)
(-4.33739 -1.01943 0)
(-4.21985 -1.37877 0)
(-4.07369 -1.62921 0)
(-3.91318 -1.74947 0)
(-3.72388 -1.84717 0)
(-3.51284 -1.92164 0)
(-3.29032 -1.9813 0)
(-3.07545 -2.04909 0)
(-2.88145 -2.12936 0)
(-2.69667 -2.20656 0)
(-2.51635 -2.2747 0)
(-2.34246 -2.33509 0)
(-2.08275 -2.2743 0)
(-1.86958 -2.18653 0)
(-1.75646 -2.17522 0)
(-1.64813 -2.1577 0)
(-1.5169 -2.10465 0)
(-1.34073 -1.9903 0)
(-1.25439 2.06191 0)
(-1.43953 2.20463 0)
(-1.61413 2.3037 0)
(-1.75681 2.34974 0)
(-1.87098 2.35173 0)
(-1.9653 2.32463 0)
(-2.12829 2.3391 0)
(-2.40971 2.3911 0)
(-2.71038 2.37887 0)
(-2.99611 2.30099 0)
(-3.26078 2.1615 0)
(-3.48174 1.98065 0)
(-3.70251 1.81683 0)
(-3.93413 1.64313 0)
(-4.14148 1.38883 0)
(-4.3013 1.07352 0)
(-4.41167 0.704689 0)
(-4.46756 0.335819 0)
(-4.48315 0.00320816 0)
(-4.47159 -0.326136 0)
(-4.43507 -0.656905 0)
(-4.37423 -0.983612 0)
(-4.28222 -1.32221 0)
(-4.15984 -1.62757 0)
(-4.01679 -1.8546 0)
(-3.84448 -2.03451 0)
(-3.64483 -2.16523 0)
(-3.42756 -2.24465 0)
(-3.2074 -2.33394 0)
(-2.99634 -2.44011 0)
(-2.7674 -2.51087 0)
(-2.52912 -2.53934 0)
(-2.28466 -2.52415 0)
(-2.01086 -2.42007 0)
(-1.81314 -2.33428 0)
(-1.69793 -2.31843 0)
(-1.57981 -2.28485 0)
(-1.43697 -2.20766 0)
(-1.25367 -2.06282 0)
(-1.16416 2.13351 0)
(-1.35572 2.31436 0)
(-1.53858 2.44728 0)
(-1.69358 2.52249 0)
(-1.81743 2.54333 0)
(-1.91528 2.52733 0)
(-2.06838 2.55261 0)
(-2.359 2.64803 0)
(-2.70648 2.69191 0)
(-3.04069 2.64537 0)
(-3.35429 2.51077 0)
(-3.60553 2.29947 0)
(-3.81832 2.10379 0)
(-4.02648 1.8704 0)
(-4.21375 1.50969 0)
(-4.34994 1.08524 0)
(-4.43335 0.611397 0)
(-4.45997 0.195078 0)
(-4.45462 -0.112746 0)
(-4.43522 -0.396643 0)
(-4.40049 -0.680314 0)
(-4.3508 -0.960829 0)
(-4.27788 -1.28279 0)
(-4.17346 -1.63084 0)
(-4.04184 -1.93357 0)
(-3.87995 -2.18709 0)
(-3.68946 -2.38553 0)
(-3.48301 -2.50092 0)
(-3.2611 -2.61284 0)
(-3.0252 -2.73376 0)
(-2.76441 -2.78588 0)
(-2.49526 -2.78164 0)
(-2.22138 -2.72073 0)
(-1.94753 -2.58808 0)
(-1.76077 -2.49756 0)
(-1.63886 -2.47119 0)
(-1.51017 -2.4172 0)
(-1.35645 -2.31415 0)
(-1.16468 -2.13401 0)
(-1.07088 2.20278 0)
(-1.26751 2.4258 0)
(-1.45834 2.59762 0)
(-1.62795 2.71112 0)
(-1.76131 2.75099 0)
(-1.86087 2.74676 0)
(-2.00595 2.78742 0)
(-2.29216 2.92033 0)
(-2.65267 3.0079 0)
(-2.99852 2.9831 0)
(-3.32264 2.84692 0)
(-3.588 2.60677 0)
(-3.78656 2.37938 0)
(-3.96521 2.08789 0)
(-4.14616 1.6327 0)
(-4.27558 1.11189 0)
(-4.35054 0.54534 0)
(-4.36479 0.0861199 0)
(-4.3509 -0.205669 0)
(-4.33045 -0.457939 0)
(-4.3001 -0.708912 0)
(-4.26003 -0.956858 0)
(-4.20067 -1.26973 0)
(-4.10762 -1.65551 0)
(-3.98146 -2.02218 0)
(-3.82516 -2.33805 0)
(-3.64083 -2.59614 0)
(-3.4546 -2.74689 0)
(-3.23461 -2.88163 0)
(-2.98222 -3.01826 0)
(-2.71369 -3.05764 0)
(-2.43642 -3.02883 0)
(-2.15427 -2.93264 0)
(-1.88793 -2.77671 0)
(-1.7129 -2.67882 0)
(-1.59476 -2.647 0)
(-1.45574 -2.58358 0)
(-1.27936 -2.43269 0)
(-1.07455 -2.2058 0)
(-0.974558 2.2698 0)
(-1.17427 2.53882 0)
(-1.37064 2.75221 0)
(-1.54937 2.90383 0)
(-1.68964 2.97432 0)
(-1.79565 2.98096 0)
(-1.93435 3.03857 0)
(-2.19532 3.18701 0)
(-2.53006 3.29157 0)
(-2.85061 3.27848 0)
(-3.15085 3.14551 0)
(-3.42322 2.89517 0)
(-3.62688 2.60738 0)
(-3.81622 2.20001 0)
(-3.98075 1.68987 0)
(-4.09846 1.11774 0)
(-4.16652 0.504659 0)
(-4.17831 0.0250243 0)
(-4.16799 -0.264931 0)
(-4.15233 -0.505192 0)
(-4.12929 -0.74325 0)
(-4.09897 -0.977828 0)
(-4.04906 -1.29274 0)
(-3.96528 -1.69862 0)
(-3.84816 -2.09561 0)
(-3.70475 -2.44615 0)
(-3.53698 -2.74288 0)
(-3.33519 -2.98936 0)
(-3.10205 -3.16803 0)
(-2.83618 -3.28523 0)
(-2.5892 -3.30841 0)
(-2.33378 -3.26216 0)
(-2.0732 -3.14787 0)
(-1.82737 -2.98263 0)
(-1.66382 -2.87981 0)
(-1.55632 -2.8517 0)
(-1.40436 -2.76042 0)
(-1.20088 -2.55809 0)
(-0.98216 -2.27696 0)
(-0.875163 2.3346 0)
(-1.07557 2.65334 0)
(-1.27493 2.9094 0)
(-1.45842 3.09468 0)
(-1.60793 3.18876 0)
(-1.71731 3.21911 0)
(-1.84774 3.29854 0)
(-2.08312 3.45528 0)
(-2.39077 3.54897 0)
(-2.68669 3.51941 0)
(-2.96165 3.36486 0)
(-3.18634 3.11407 0)
(-3.37075 2.80136 0)
(-3.5705 2.3431 0)
(-3.71825 1.79949 0)
(-3.82295 1.1904 0)
(-3.88219 0.537761 0)
(-3.90394 0.0270209 0)
(-3.9081 -0.280209 0)
(-3.90234 -0.533643 0)
(-3.88971 -0.783796 0)
(-3.87022 -1.02936 0)
(-3.82699 -1.36032 0)
(-3.7395 -1.79251 0)
(-3.62248 -2.21784 0)
(-3.48198 -2.59678 0)
(-3.31998 -2.9214 0)
(-3.10665 -3.21813 0)
(-2.89564 -3.41819 0)
(-2.67789 -3.51953 0)
(-2.45579 -3.54371 0)
(-2.22451 -3.49502 0)
(-1.98694 -3.37519 0)
(-1.76165 -3.20073 0)
(-1.60454 -3.09004 0)
(-1.49678 -3.04907 0)
(-1.33344 -2.92893 0)
(-1.11248 -2.6816 0)
(-0.885519 -2.34509 0)
(-0.772644 2.39751 0)
(-0.970944 2.77041 0)
(-1.17184 3.07238 0)
(-1.3633 3.2929 0)
(-1.5138 3.41031 0)
(-1.62229 3.46008 0)
(-1.74176 3.55741 0)
(-1.94926 3.71455 0)
(-2.215 3.7937 0)
(-2.46482 3.7397 0)
(-2.6929 3.5539 0)
(-2.80871 3.32228 0)
(-2.9502 3.01911 0)
(-3.16892 2.56965 0)
(-3.32007 1.99436 0)
(-3.43431 1.34982 0)
(-3.50876 0.659144 0)
(-3.55259 0.104448 0)
(-3.58024 -0.243043 0)
(-3.58903 -0.539349 0)
(-3.58981 -0.8308 0)
(-3.58254 -1.11551 0)
(-3.54398 -1.47854 0)
(-3.44869 -1.94071 0)
(-3.31716 -2.39523 0)
(-3.16492 -2.80062 0)
(-2.99436 -3.14806 0)
(-2.77137 -3.44261 0)
(-2.60963 -3.63352 0)
(-2.4912 -3.71801 0)
(-2.30416 -3.75838 0)
(-2.10393 -3.71744 0)
(-1.89426 -3.59894 0)
(-1.68755 -3.42414 0)
(-1.53031 -3.3047 0)
(-1.40887 -3.24616 0)
(-1.23828 -3.09695 0)
(-1.01038 -2.80102 0)
(-0.783577 -2.40876 0)
(-0.666607 2.45843 0)
(-0.858431 2.88962 0)
(-1.05587 3.2395 0)
(-1.24595 3.49592 0)
(-1.39641 3.63409 0)
(-1.50661 3.69598 0)
(-1.61418 3.80315 0)
(-1.76988 3.94952 0)
(-1.95003 4.01115 0)
(-2.10817 3.94867 0)
(-2.24245 3.76374 0)
(-2.29779 3.51414 0)
(-2.41266 3.18692 0)
(-2.62263 2.73038 0)
(-2.79232 2.15444 0)
(-2.93786 1.51766 0)
(-3.05546 0.840237 0)
(-3.14203 0.264847 0)
(-3.19904 -0.148035 0)
(-3.22651 -0.519779 0)
(-3.24338 -0.884295 0)
(-3.2494 -1.23819 0)
(-3.21447 -1.64987 0)
(-3.10569 -2.12357 0)
(-2.95432 -2.57042 0)
(-2.78852 -2.97263 0)
(-2.61083 -3.32221 0)
(-2.40377 -3.61125 0)
(-2.2706 -3.80767 0)
(-2.1964 -3.90699 0)
(-2.07228 -3.95023 0)
(-1.9321 -3.91663 0)
(-1.77821 -3.80837 0)
(-1.60327 -3.64441 0)
(-1.44017 -3.51633 0)
(-1.29683 -3.4334 0)
(-1.11452 -3.24808 0)
(-0.892787 -2.90989 0)
(-0.675916 -2.46588 0)
(-0.556642 2.51709 0)
(-0.736351 3.00987 0)
(-0.925056 3.40715 0)
(-1.11027 3.69055 0)
(-1.26097 3.84446 0)
(-1.37004 3.91611 0)
(-1.46546 4.02236 0)
(-1.56063 4.14137 0)
(-1.63585 4.17433 0)
(-1.68417 4.10039 0)
(-1.70404 3.92051 0)
(-1.69408 3.66211 0)
(-1.77854 3.31525 0)
(-1.97956 2.86785 0)
(-2.18631 2.32362 0)
(-2.38126 1.72802 0)
(-2.55971 1.09709 0)
(-2.69543 0.509496 0)
(-2.78273 0.00676077 0)
(-2.83222 -0.4739 0)
(-2.86715 -0.94415 0)
(-2.88687 -1.39722 0)
(-2.8566 -1.87246 0)
(-2.73205 -2.34734 0)
(-2.55089 -2.76483 0)
(-2.36166 -3.1438 0)
(-2.16711 -3.47766 0)
(-1.97727 -3.75313 0)
(-1.87315 -3.95215 0)
(-1.8449 -4.0609 0)
(-1.79803 -4.10595 0)
(-1.73215 -4.08363 0)
(-1.64759 -3.99434 0)
(-1.50874 -3.85184 0)
(-1.33242 -3.71868 0)
(-1.16085 -3.60214 0)
(-0.972061 -3.38181 0)
(-0.761611 -3.00704 0)
(-0.563074 -2.516 0)
(-0.442224 2.57313 0)
(-0.602433 3.13047 0)
(-0.775818 3.57621 0)
(-0.953255 3.88427 0)
(-1.09825 4.04264 0)
(-1.20998 4.11287 0)
(-1.29878 4.2018 0)
(-1.31079 4.2811 0)
(-1.22965 4.29388 0)
(-1.14528 4.21261 0)
(-1.06765 4.03429 0)
(-1.0218 3.76225 0)
(-1.07283 3.40075 0)
(-1.23571 2.96365 0)
(-1.46176 2.47093 0)
(-1.73006 1.94713 0)
(-2.03133 1.41511 0)
(-2.23904 0.832705 0)
(-2.35146 0.219819 0)
(-2.42518 -0.402094 0)
(-2.47927 -1.01006 0)
(-2.51231 -1.59029 0)
(-2.49044 -2.13985 0)
(-2.33493 -2.602 0)
(-2.08225 -2.96131 0)
(-1.85371 -3.30033 0)
(-1.65525 -3.60568 0)
(-1.50239 -3.86591 0)
(-1.42715 -4.06468 0)
(-1.42176 -4.18709 0)
(-1.44186 -4.23935 0)
(-1.46769 -4.22642 0)
(-1.4938 -4.15134 0)
(-1.40602 -4.036 0)
(-1.20258 -3.90766 0)
(-0.991705 -3.75782 0)
(-0.802001 -3.50164 0)
(-0.61534 -3.0918 0)
(-0.445094 -2.55859 0)
(-0.32259 2.62494 0)
(-0.453174 3.24767 0)
(-0.600459 3.74186 0)
(-0.76051 4.06645 0)
(-0.899084 4.22375 0)
(-1.0202 4.27823 0)
(-1.0847 4.3295 0)
(-0.949212 4.38009 0)
(-0.779386 4.36306 0)
(-0.634196 4.26133 0)
(-0.529855 4.07175 0)
(-0.482324 3.79686 0)
(-0.505521 3.44539 0)
(-0.60949 3.03207 0)
(-0.798734 2.57683 0)
(-1.07108 2.1032 0)
(-1.41718 1.63633 0)
(-1.76077 1.16327 0)
(-1.92601 0.486202 0)
(-2.02461 -0.306021 0)
(-2.09803 -1.08151 0)
(-2.14338 -1.81305 0)
(-2.08773 -2.39543 0)
(-1.8137 -2.75948 0)
(-1.53002 -3.08775 0)
(-1.30056 -3.40535 0)
(-1.13163 -3.69569 0)
(-1.02449 -3.94408 0)
(-0.975779 -4.13895 0)
(-0.978458 -4.27262 0)
(-1.02293 -4.34164 0)
(-1.09836 -4.34672 0)
(-1.19384 -4.29221 0)
(-1.25232 -4.19071 0)
(-1.04002 -4.07705 0)
(-0.779153 -3.89425 0)
(-0.600878 -3.60255 0)
(-0.453468 -3.16101 0)
(-0.322179 -2.59243 0)
(-0.197153 2.6686 0)
(-0.285012 3.35297 0)
(-0.38943 3.89981 0)
(-0.513847 4.2522 0)
(-0.624297 4.38414 0)
(-0.720723 4.41377 0)
(-0.69237 4.4291 0)
(-0.572649 4.41823 0)
(-0.451095 4.35716 0)
(-0.344172 4.23812 0)
(-0.265109 4.05189 0)
(-0.226431 3.79133 0)
(-0.236253 3.46146 0)
(-0.301301 3.07502 0)
(-0.423322 2.65 0)
(-0.600871 2.20138 0)
(-0.827734 1.74326 0)
(-1.08654 1.28709 0)
(-1.2755 0.638572 0)
(-1.35804 -0.234051 0)
(-1.42132 -1.09394 0)
(-1.46254 -1.90655 0)
(-1.35104 -2.45612 0)
(-1.13626 -2.81116 0)
(-0.94157 -3.15184 0)
(-0.784895 -3.47049 0)
(-0.671762 -3.75665 0)
(-0.602477 -4.00032 0)
(-0.574183 -4.1934 0)
(-0.581663 -4.33061 0)
(-0.617997 -4.40986 0)
(-0.675007 -4.43216 0)
(-0.742528 -4.40111 0)
(-0.803652 -4.32188 0)
(-0.71948 -4.2009 0)
(-0.505389 -3.99136 0)
(-0.372975 -3.67533 0)
(-0.278195 -3.21017 0)
(-0.195143 -2.61601 0)
(-0.0664485 2.69554 0)
(-0.0977723 3.42288 0)
(-0.135854 4.01575 0)
(-0.179094 4.40322 0)
(-0.241279 4.47663 0)
(-0.262902 4.46589 0)
(-0.240553 4.43282 0)
(-0.199204 4.37444 0)
(-0.16255 4.29162 0)
(-0.127584 4.18304 0)
(-0.094464 4.01748 0)
(-0.0824197 3.77731 0)
(-0.0847403 3.47378 0)
(-0.106221 3.11082 0)
(-0.146108 2.70763 0)
(-0.203729 2.27297 0)
(-0.275811 1.8146 0)
(-0.351703 1.33847 0)
(-0.406787 0.674191 0)
(-0.433193 -0.184038 0)
(-0.453998 -1.03507 0)
(-0.468363 -1.84703 0)
(-0.440601 -2.43296 0)
(-0.379528 -2.82805 0)
(-0.316945 -3.19171 0)
(-0.265214 -3.52026 0)
(-0.227624 -3.80786 0)
(-0.20451 -4.04883 0)
(-0.194873 -4.2385 0)
(-0.196878 -4.37374 0)
(-0.208057 -4.45332 0)
(-0.225222 -4.47779 0)
(-0.243669 -4.44897 0)
(-0.253084 -4.36787 0)
(-0.228636 -4.23082 0)
(-0.173607 -4.02706 0)
(-0.126839 -3.71423 0)
(-0.0938566 -3.23596 0)
(-0.065374 -2.62819 0)
(0.0664514 2.69554 -0)
(0.0977746 3.42288 -0)
(0.135855 4.01575 -0)
(0.179093 4.40323 -0)
(0.241276 4.47663 -0)
(0.262899 4.46589 -0)
(0.240551 4.43282 -0)
(0.199201 4.37444 -0)
(0.162547 4.29162 -0)
(0.127581 4.18304 -0)
(0.0944622 4.01748 -0)
(0.0824182 3.77731 -0)
(0.0847368 3.47379 -0)
(0.106217 3.11085 -0)
(0.146103 2.70767 -0)
(0.203725 2.27303 -0)
(0.275806 1.81468 -0)
(0.351697 1.33856 -0)
(0.406781 0.674281 -0)
(0.433187 -0.183955 0)
(0.453992 -1.035 0)
(0.468356 -1.84697 0)
(0.440594 -2.43291 0)
(0.379523 -2.82801 0)
(0.316944 -3.19169 0)
(0.265211 -3.52026 0)
(0.227621 -3.80787 0)
(0.204506 -4.04884 0)
(0.194867 -4.2385 0)
(0.196873 -4.37374 0)
(0.20805 -4.45333 0)
(0.225215 -4.47779 0)
(0.243662 -4.44897 0)
(0.253077 -4.36787 0)
(0.228633 -4.23081 0)
(0.173603 -4.02706 0)
(0.126839 -3.71423 0)
(0.0938585 -3.23596 0)
(0.0653768 -2.62818 0)
(0.197155 2.6686 -0)
(0.285014 3.35297 -0)
(0.38943 3.8998 -0)
(0.513846 4.2522 -0)
(0.624295 4.38414 -0)
(0.720719 4.41377 -0)
(0.692367 4.4291 -0)
(0.572646 4.41823 -0)
(0.451093 4.35716 -0)
(0.344171 4.23812 -0)
(0.265107 4.05189 -0)
(0.226429 3.79133 -0)
(0.236252 3.46146 -0)
(0.301298 3.07505 -0)
(0.423318 2.65005 -0)
(0.600864 2.20144 -0)
(0.827723 1.74333 -0)
(1.08652 1.28718 -0)
(1.27549 0.63866 -0)
(1.35803 -0.233969 0)
(1.42131 -1.09387 0)
(1.46253 -1.90649 0)
(1.35104 -2.45607 0)
(1.13625 -2.81113 0)
(0.941562 -3.15182 0)
(0.784888 -3.47049 0)
(0.671756 -3.75665 0)
(0.60247 -4.00032 0)
(0.574179 -4.19341 0)
(0.581658 -4.33061 0)
(0.617992 -4.40987 0)
(0.675002 -4.43216 0)
(0.742522 -4.40111 0)
(0.803648 -4.32187 0)
(0.719474 -4.2009 0)
(0.505388 -3.99136 0)
(0.372975 -3.67533 0)
(0.278197 -3.21017 0)
(0.195146 -2.61601 0)
(0.322592 2.62493 -0)
(0.453175 3.24767 -0)
(0.600459 3.74186 -0)
(0.760509 4.06645 -0)
(0.899082 4.22375 -0)
(1.0202 4.27823 -0)
(1.0847 4.3295 -0)
(0.949209 4.38009 -0)
(0.779382 4.36306 -0)
(0.634192 4.26133 -0)
(0.529851 4.07175 -0)
(0.482321 3.79686 -0)
(0.505518 3.44539 -0)
(0.609486 3.03207 -0)
(0.79873 2.57683 -0)
(1.07107 2.1032 -0)
(1.41718 1.63633 -0)
(1.76077 1.16327 -0)
(1.926 0.486205 -0)
(2.02461 -0.30602 0)
(2.09802 -1.08151 0)
(2.14337 -1.81305 0)
(2.08772 -2.39543 0)
(1.81369 -2.75948 0)
(1.53001 -3.08775 0)
(1.30055 -3.40535 0)
(1.13163 -3.69569 0)
(1.02449 -3.94408 0)
(0.975775 -4.13895 0)
(0.978454 -4.27262 0)
(1.02293 -4.34164 0)
(1.09836 -4.34673 0)
(1.19383 -4.29221 0)
(1.25231 -4.19071 0)
(1.04001 -4.07705 0)
(0.779152 -3.89425 0)
(0.600877 -3.60255 0)
(0.453469 -3.161 0)
(0.322181 -2.59243 0)
(0.442225 2.57313 -0)
(0.602434 3.13046 -0)
(0.775818 3.5762 -0)
(0.953254 3.88427 -0)
(1.09825 4.04264 -0)
(1.20998 4.11287 -0)
(1.29878 4.2018 -0)
(1.31079 4.28111 -0)
(1.22964 4.29388 -0)
(1.14528 4.21261 -0)
(1.06764 4.03429 -0)
(1.02179 3.76225 -0)
(1.07283 3.40075 -0)
(1.23571 2.96365 -0)
(1.46175 2.47093 -0)
(1.73005 1.94713 -0)
(2.03132 1.41511 -0)
(2.23904 0.832708 -0)
(2.35146 0.21982 -0)
(2.42517 -0.402094 0)
(2.47927 -1.01006 0)
(2.51231 -1.59029 0)
(2.49044 -2.13985 0)
(2.33492 -2.60199 0)
(2.08224 -2.96131 0)
(1.85371 -3.30034 0)
(1.65525 -3.60569 0)
(1.50238 -3.86591 0)
(1.42715 -4.06468 0)
(1.42176 -4.18709 0)
(1.44185 -4.23935 0)
(1.46768 -4.22642 0)
(1.4938 -4.15134 0)
(1.40602 -4.036 0)
(1.20258 -3.90766 0)
(0.991704 -3.75782 0)
(0.802001 -3.50164 0)
(0.61534 -3.09179 0)
(0.445095 -2.55859 0)
(0.556645 2.51709 -0)
(0.736352 3.00987 -0)
(0.925055 3.40715 -0)
(1.11027 3.69055 -0)
(1.26096 3.84446 -0)
(1.37004 3.91611 -0)
(1.46546 4.02235 -0)
(1.56062 4.14137 -0)
(1.63585 4.17433 -0)
(1.68417 4.10039 -0)
(1.70403 3.92051 -0)
(1.69407 3.66212 -0)
(1.77853 3.31525 -0)
(1.97956 2.86785 -0)
(2.18631 2.32361 -0)
(2.38126 1.72803 -0)
(2.55971 1.09709 -0)
(2.69544 0.509497 -0)
(2.78272 0.00676012 -0)
(2.83222 -0.4739 0)
(2.86715 -0.944152 0)
(2.88687 -1.39721 0)
(2.8566 -1.87245 0)
(2.73205 -2.34733 0)
(2.55088 -2.76483 0)
(2.36165 -3.14381 0)
(2.1671 -3.47767 0)
(1.97726 -3.75313 0)
(1.87315 -3.95216 0)
(1.8449 -4.0609 0)
(1.79802 -4.10595 0)
(1.73214 -4.08364 0)
(1.64759 -3.99434 0)
(1.50874 -3.85184 0)
(1.33242 -3.71868 0)
(1.16085 -3.60214 0)
(0.97206 -3.38181 0)
(0.76161 -3.00704 0)
(0.563075 -2.516 0)
(0.666607 2.45842 -0)
(0.858431 2.88962 -0)
(1.05586 3.2395 -0)
(1.24595 3.49592 -0)
(1.39641 3.63408 -0)
(1.50661 3.69598 -0)
(1.61418 3.80315 -0)
(1.76987 3.94952 -0)
(1.95003 4.01115 -0)
(2.10817 3.94867 -0)
(2.24245 3.76374 -0)
(2.29778 3.51415 -0)
(2.41266 3.18692 -0)
(2.62263 2.73038 -0)
(2.79232 2.15444 -0)
(2.93786 1.51766 -0)
(3.05546 0.84024 -0)
(3.14203 0.264844 -0)
(3.19904 -0.148035 0)
(3.22651 -0.51978 0)
(3.24339 -0.884294 0)
(3.24941 -1.23819 0)
(3.21448 -1.64987 0)
(3.10569 -2.12357 0)
(2.95432 -2.57042 0)
(2.78851 -2.97263 0)
(2.61083 -3.32222 0)
(2.40376 -3.61125 0)
(2.27059 -3.80767 0)
(2.19639 -3.90699 0)
(2.07228 -3.95024 0)
(1.9321 -3.91663 0)
(1.77821 -3.80837 0)
(1.60327 -3.64441 0)
(1.44016 -3.51633 0)
(1.29683 -3.4334 0)
(1.11451 -3.24808 0)
(0.892785 -2.90989 0)
(0.675917 -2.46588 0)
(0.772643 2.3975 -0)
(0.970942 2.77041 -0)
(1.17184 3.07238 -0)
(1.3633 3.2929 -0)
(1.5138 3.4103 -0)
(1.62229 3.46007 -0)
(1.74175 3.5574 -0)
(1.94925 3.71455 -0)
(2.215 3.7937 -0)
(2.46482 3.7397 -0)
(2.69289 3.5539 -0)
(2.8087 3.32228 -0)
(2.95019 3.01911 -0)
(3.16892 2.56965 -0)
(3.32007 1.99436 -0)
(3.43431 1.34982 -0)
(3.50876 0.659144 -0)
(3.55259 0.104449 -0)
(3.58024 -0.243044 0)
(3.58903 -0.539351 0)
(3.58982 -0.830799 0)
(3.58254 -1.11551 0)
(3.54398 -1.47854 0)
(3.44869 -1.94071 0)
(3.31716 -2.39523 0)
(3.16492 -2.80062 0)
(2.99435 -3.14806 0)
(2.77136 -3.44261 0)
(2.60962 -3.63353 0)
(2.49119 -3.71802 0)
(2.30416 -3.75839 0)
(2.10393 -3.71744 0)
(1.89426 -3.59894 0)
(1.68755 -3.42414 0)
(1.53031 -3.3047 0)
(1.40887 -3.24616 0)
(1.23828 -3.09694 0)
(1.01038 -2.80102 0)
(0.783577 -2.40875 0)
(0.875163 2.3346 -0)
(1.07556 2.65333 -0)
(1.27492 2.9094 -0)
(1.45842 3.09468 -0)
(1.60793 3.18876 -0)
(1.71731 3.21911 -0)
(1.84774 3.29854 -0)
(2.08312 3.45527 -0)
(2.39076 3.54898 -0)
(2.68669 3.51941 -0)
(2.96165 3.36486 -0)
(3.18634 3.11407 -0)
(3.37074 2.80136 -0)
(3.5705 2.3431 -0)
(3.71825 1.79949 -0)
(3.82295 1.1904 -0)
(3.88219 0.537761 -0)
(3.90394 0.0270211 -0)
(3.90809 -0.280209 0)
(3.90234 -0.533642 0)
(3.88971 -0.783796 0)
(3.87022 -1.02936 0)
(3.82699 -1.36032 0)
(3.7395 -1.79251 0)
(3.62248 -2.21784 0)
(3.48198 -2.59678 0)
(3.31998 -2.92141 0)
(3.10665 -3.21813 0)
(2.89564 -3.41819 0)
(2.67789 -3.51953 0)
(2.45579 -3.54372 0)
(2.2245 -3.49502 0)
(1.98694 -3.37519 0)
(1.76164 -3.20073 0)
(1.60454 -3.09004 0)
(1.49678 -3.04907 0)
(1.33343 -2.92893 0)
(1.11247 -2.68159 0)
(0.885517 -2.34508 0)
(0.974555 2.26979 -0)
(1.17427 2.53882 -0)
(1.37064 2.7522 -0)
(1.54937 2.90383 -0)
(1.68964 2.97432 -0)
(1.79565 2.98096 -0)
(1.93435 3.03857 -0)
(2.19532 3.18701 -0)
(2.53006 3.29157 -0)
(2.85061 3.27848 -0)
(3.15085 3.14551 -0)
(3.42322 2.89517 -0)
(3.62688 2.60738 -0)
(3.81622 2.20001 -0)
(3.98075 1.68987 -0)
(4.09846 1.11774 -0)
(4.16652 0.50466 -0)
(4.1783 0.0250244 -0)
(4.16798 -0.26493 0)
(4.15233 -0.505192 0)
(4.12929 -0.743249 0)
(4.09897 -0.977827 0)
(4.04906 -1.29274 0)
(3.96528 -1.69862 0)
(3.84816 -2.09561 0)
(3.70475 -2.44615 0)
(3.53697 -2.74288 0)
(3.33519 -2.98936 0)
(3.10205 -3.16803 0)
(2.83618 -3.28523 0)
(2.58919 -3.30841 0)
(2.33378 -3.26216 0)
(2.07319 -3.14787 0)
(1.82736 -2.98263 0)
(1.66382 -2.87981 0)
(1.55632 -2.85169 0)
(1.40435 -2.76042 0)
(1.20088 -2.55809 0)
(0.982158 -2.27695 0)
(1.07088 2.20277 -0)
(1.26751 2.42579 -0)
(1.45834 2.59761 -0)
(1.62795 2.71112 -0)
(1.76131 2.75098 -0)
(1.86087 2.74676 -0)
(2.00595 2.78742 -0)
(2.29216 2.92033 -0)
(2.65267 3.0079 -0)
(2.99851 2.9831 -0)
(3.32264 2.84692 -0)
(3.588 2.60678 -0)
(3.78656 2.37938 -0)
(3.96521 2.08789 -0)
(4.14616 1.6327 -0)
(4.27558 1.11189 -0)
(4.35054 0.54534 -0)
(4.36479 0.0861194 -0)
(4.3509 -0.205667 0)
(4.33045 -0.457937 0)
(4.3001 -0.708912 0)
(4.26003 -0.956857 0)
(4.20067 -1.26973 0)
(4.10762 -1.65552 0)
(3.98146 -2.02219 0)
(3.82516 -2.33805 0)
(3.64083 -2.59614 0)
(3.4546 -2.7469 0)
(3.23461 -2.88163 0)
(2.98222 -3.01826 0)
(2.71368 -3.05764 0)
(2.43642 -3.02883 0)
(2.15426 -2.93264 0)
(1.88793 -2.7767 0)
(1.7129 -2.67882 0)
(1.59476 -2.64699 0)
(1.45574 -2.58358 0)
(1.27936 -2.43269 0)
(1.07455 -2.20579 0)
(1.16416 2.1335 -0)
(1.35572 2.31435 -0)
(1.53858 2.44728 -0)
(1.69357 2.52249 -0)
(1.81743 2.54333 -0)
(1.91528 2.52733 -0)
(2.06838 2.5526 -0)
(2.35899 2.64802 -0)
(2.70648 2.6919 -0)
(3.04068 2.64536 -0)
(3.35429 2.51077 -0)
(3.60553 2.29947 -0)
(3.81832 2.10379 -0)
(4.02648 1.8704 -0)
(4.21375 1.50969 -0)
(4.34994 1.08524 -0)
(4.43336 0.611394 -0)
(4.45997 0.195081 -0)
(4.45462 -0.112745 0)
(4.43522 -0.396642 0)
(4.40049 -0.680313 0)
(4.3508 -0.960829 0)
(4.27788 -1.28279 0)
(4.17346 -1.63085 0)
(4.04184 -1.93357 0)
(3.87995 -2.18709 0)
(3.68946 -2.38553 0)
(3.48301 -2.50092 0)
(3.2611 -2.61284 0)
(3.02519 -2.73376 0)
(2.76441 -2.78588 0)
(2.49526 -2.78164 0)
(2.22137 -2.72073 0)
(1.94753 -2.58807 0)
(1.76077 -2.49755 0)
(1.63885 -2.47118 0)
(1.51017 -2.41719 0)
(1.35645 -2.31415 0)
(1.16468 -2.134 0)
(1.25439 2.0619 -0)
(1.43953 2.20462 -0)
(1.61413 2.3037 -0)
(1.7568 2.34974 -0)
(1.87098 2.35173 -0)
(1.9653 2.32463 -0)
(2.12828 2.3391 -0)
(2.40971 2.39109 -0)
(2.71037 2.37886 -0)
(2.9961 2.30099 -0)
(3.26078 2.1615 -0)
(3.48174 1.98064 -0)
(3.7025 1.81682 -0)
(3.93413 1.64312 -0)
(4.14148 1.38883 -0)
(4.3013 1.07352 -0)
(4.41167 0.704689 -0)
(4.46756 0.335818 -0)
(4.48315 0.00320931 -0)
(4.47159 -0.326135 0)
(4.43507 -0.656904 0)
(4.37423 -0.983612 0)
(4.28222 -1.32221 0)
(4.15984 -1.62758 0)
(4.01679 -1.85461 0)
(3.84448 -2.03451 0)
(3.64483 -2.16523 0)
(3.42756 -2.24465 0)
(3.20739 -2.33394 0)
(2.99634 -2.44011 0)
(2.7674 -2.51087 0)
(2.52912 -2.53934 0)
(2.28466 -2.52415 0)
(2.01086 -2.42007 0)
(1.81314 -2.33428 0)
(1.69793 -2.31843 0)
(1.57981 -2.28485 0)
(1.43697 -2.20765 0)
(1.25367 -2.06282 0)
(1.3412 1.98746 -0)
(1.5182 2.09473 -0)
(1.68375 2.16331 -0)
(1.81428 2.18459 -0)
(1.91961 2.17102 -0)
(2.01405 2.13804 -0)
(2.19253 2.14945 -0)
(2.44234 2.142 -0)
(2.63447 2.04164 -0)
(2.82972 1.92652 -0)
(3.02549 1.79556 -0)
(3.22441 1.65566 -0)
(3.44895 1.52528 -0)
(3.69409 1.39304 -0)
(3.92693 1.23074 -0)
(4.12951 1.03369 -0)
(4.29332 0.803847 -0)
(4.39675 0.494247 -0)
(4.44516 0.132504 -0)
(4.44946 -0.250811 0)
(4.41315 -0.638256 0)
(4.33739 -1.01943 0)
(4.21985 -1.37877 0)
(4.07368 -1.62921 0)
(3.91318 -1.74947 0)
(3.72388 -1.84717 0)
(3.51284 -1.92164 0)
(3.29032 -1.98129 0)
(3.07545 -2.04909 0)
(2.88145 -2.12935 0)
(2.69667 -2.20656 0)
(2.51635 -2.2747 0)
(2.34246 -2.33509 0)
(2.08274 -2.27429 0)
(1.86958 -2.18653 0)
(1.75646 -2.17522 0)
(1.64813 -2.1577 0)
(1.5169 -2.10464 0)
(1.34072 -1.9903 0)
(1.42378 1.90928 -0)
(1.58951 1.98181 -0)
(1.74357 2.02104 -0)
(1.86034 2.01958 -0)
(1.95753 1.99346 -0)
(2.06114 1.96434 -0)
(2.22384 1.95258 -0)
(2.35234 1.84632 -0)
(2.46343 1.71954 -0)
(2.59983 1.60764 -0)
(2.76328 1.50551 -0)
(2.95325 1.40745 -0)
(3.16655 1.30761 -0)
(3.39706 1.20066 -0)
(3.63566 1.08236 -0)
(3.87035 0.950352 -0)
(4.08676 0.80476 -0)
(4.25658 0.619918 -0)
(4.35173 0.268523 -0)
(4.38166 -0.173569 0)
(4.34696 -0.624163 0)
(4.24964 -1.06411 0)
(4.10547 -1.39765 0)
(3.93921 -1.50841 0)
(3.74406 -1.57134 0)
(3.52982 -1.62943 0)
(3.30865 -1.68245 0)
(3.09103 -1.7319 0)
(2.88529 -1.78069 0)
(2.6974 -1.83259 0)
(2.53096 -1.89178 0)
(2.38744 -1.96243 0)
(2.26639 -2.04835 0)
(2.12021 -2.10422 0)
(1.92924 -2.04864 0)
(1.81063 -2.0326 0)
(1.71129 -2.02926 0)
(1.59275 -1.99926 0)
(1.4246 -1.91448 0)
(1.50083 1.8264 -0)
(1.64982 1.86277 -0)
(1.78731 1.87173 -0)
(1.88543 1.84716 -0)
(1.96942 1.8051 -0)
(2.07473 1.77214 -0)
(2.16279 1.6984 -0)
(2.24576 1.59213 -0)
(2.34334 1.49218 -0)
(2.45971 1.39996 -0)
(2.59676 1.31334 -0)
(2.75466 1.22888 -0)
(2.93192 1.14277 -0)
(3.12549 1.05129 -0)
(3.33046 0.951033 -0)
(3.53989 0.839062 -0)
(3.744 0.712721 -0)
(3.92812 0.568429 -0)
(4.06973 0.304405 -0)
(4.12423 -0.0929579 0)
(4.10536 -0.500365 0)
(4.01466 -0.896432 0)
(3.85999 -1.13136 0)
(3.67895 -1.22561 0)
(3.47955 -1.30044 0)
(3.27419 -1.36391 0)
(3.07149 -1.41979 0)
(2.87779 -1.4709 0)
(2.69774 -1.52007 0)
(2.53448 -1.57028 0)
(2.38972 -1.62452 0)
(2.2638 -1.68539 0)
(2.15559 -1.75441 0)
(2.06193 -1.82983 0)
(1.96358 -1.87409 0)
(1.84814 -1.87401 0)
(1.76241 -1.89208 0)
(1.65957 -1.88605 0)
(1.5035 -1.83347 0)
(1.57051 1.73792 -0)
(1.69418 1.73492 -0)
(1.80722 1.71183 -0)
(1.87908 1.663 -0)
(1.93811 1.5993 -0)
(2.02064 1.54251 -0)
(2.0943 1.46909 -0)
(2.16337 1.38206 -0)
(2.2373 1.29355 -0)
(2.32095 1.20738 -0)
(2.41671 1.12375 -0)
(2.52545 1.04137 -0)
(2.64698 0.958332 -0)
(2.78017 0.872489 -0)
(2.9227 0.781613 -0)
(3.07039 0.683267 -0)
(3.2154 0.574439 -0)
(3.34184 0.450707 -0)
(3.4485 0.250861 -0)
(3.50421 -0.0286359 0)
(3.49677 -0.314405 0)
(3.42683 -0.591098 0)
(3.31573 -0.781197 0)
(3.18909 -0.887678 0)
(3.04181 -0.973911 0)
(2.89082 -1.04875 0)
(2.74407 -1.1168 0)
(2.60571 -1.18093 0)
(2.47794 -1.24331 0)
(2.36196 -1.30587 0)
(2.25806 -1.37022 0)
(2.16567 -1.43746 0)
(2.08308 -1.5075 0)
(2.00675 -1.57743 0)
(1.93023 -1.63846 0)
(1.85684 -1.69852 0)
(1.79662 -1.73859 0)
(1.70969 -1.75971 0)
(1.57459 -1.74527 0)
(1.62995 1.6432 -0)
(1.71592 1.59563 -0)
(1.79514 1.53972 -0)
(1.84234 1.46607 -0)
(1.89166 1.40928 -0)
(1.95134 1.34058 -0)
(2.00618 1.26643 -0)
(2.05785 1.188 -0)
(2.10921 1.10788 -0)
(2.16204 1.02731 -0)
(2.21725 0.946616 -0)
(2.27521 0.865613 -0)
(2.33594 0.783855 -0)
(2.39918 0.700744 -0)
(2.46423 0.615575 -0)
(2.52968 0.527521 -0)
(2.59264 0.435555 -0)
(2.64742 0.338407 -0)
(2.70063 0.195335 -0)
(2.73137 0.00631932 -0)
(2.72718 -0.185293 0)
(2.68816 -0.372987 0)
(2.63037 -0.512582 0)
(2.5736 -0.604681 0)
(2.50663 -0.689868 0)
(2.43636 -0.770387 0)
(2.36617 -0.847732 0)
(2.29766 -0.922916 0)
(2.23156 -0.996686 0)
(2.16815 -1.06963 0)
(2.10746 -1.14222 0)
(2.04922 -1.21468 0)
(1.99276 -1.28688 0)
(1.93692 -1.35809 0)
(1.8807 -1.42717 0)
(1.82827 -1.49754 0)
(1.78811 -1.56105 0)
(1.72698 -1.60976 0)
(1.6329 -1.64756 0)
(-1.62995 1.6432 0)
(-1.71593 1.59563 0)
(-1.79515 1.53973 0)
(-1.84248 1.4664 0)
(-1.89168 1.4093 0)
(-1.95136 1.3406 0)
(-2.00621 1.26644 0)
(-2.05787 1.18801 0)
(-2.10921 1.10788 0)
(-2.16202 1.0273 0)
(-2.21722 0.946603 0)
(-2.27518 0.865602 0)
(-2.33591 0.783846 0)
(-2.39915 0.700737 0)
(-2.4642 0.615569 0)
(-2.52965 0.527516 0)
(-2.59261 0.435551 0)
(-2.64739 0.338403 0)
(-2.70059 0.195334 0)
(-2.73134 0.00632087 0)
(-2.72715 -0.185289 0)
(-2.68813 -0.372979 0)
(-2.63034 -0.512572 0)
(-2.57357 -0.604668 0)
(-2.50659 -0.689854 0)
(-2.43633 -0.770371 0)
(-2.36614 -0.847714 0)
(-2.29763 -0.922896 0)
(-2.23152 -0.996664 0)
(-2.16812 -1.06961 0)
(-2.10745 -1.1422 0)
(-2.04922 -1.21467 0)
(-1.99277 -1.28689 0)
(-1.93694 -1.35812 0)
(-1.88073 -1.42722 0)